/*--------------------------------*- C++ -*----------------------------------*\
| =========                 |                                                 |
| \\      /  F ield         | OpenFOAM: The Open Source CFD Toolbox           |
|  \\    /   O peration     | Version:  v2012                                 |
|   \\  /    A nd           | Website:  www.openfoam.com                      |
|    \\/     M anipulation  |                                                 |
\*---------------------------------------------------------------------------*/
FoamFile
{
    version     2.0;
    format      ascii;
    class       volScalarField;
    location    "0";
    object      phi;
}
// * * * * * * * * * * * * * * * * * * * * * * * * * * * * * * * * * * * * * //

dimensions      [0 1 0 0 0 0 0];


internalField   nonuniform List<scalar> 
400
(
0.718188
0.691873
0.667771
0.646084
0.627014
0.610756
0.597496
0.587394
0.580582
0.577152
0.577152
0.580582
0.587394
0.597496
0.610756
0.627014
0.646084
0.667771
0.691873
0.718188
0.676892
0.649218
0.623789
0.600833
0.580582
0.563267
0.549107
0.538295
0.530992
0.527311
0.527311
0.530992
0.538295
0.549107
0.563267
0.580582
0.600833
0.623789
0.649218
0.676892
0.636607
0.607463
0.580582
0.556222
0.534653
0.516146
0.500961
0.489336
0.481467
0.477495
0.477495
0.481467
0.489336
0.500961
0.516146
0.534653
0.556222
0.580582
0.607463
0.636607
0.597496
0.566764
0.538295
0.512382
0.489336
0.469476
0.453117
0.440551
0.432022
0.427711
0.427711
0.432022
0.440551
0.453117
0.469476
0.489336
0.512382
0.538295
0.566764
0.597496
0.559753
0.527311
0.497109
0.469476
0.444769
0.423367
0.405653
0.391987
0.382682
0.377968
0.377968
0.382682
0.391987
0.405653
0.423367
0.444769
0.469476
0.497109
0.527311
0.559753
0.52361
0.489336
0.457248
0.427711
0.401135
0.377968
0.358675
0.34371
0.333477
0.328278
0.328278
0.333477
0.34371
0.358675
0.377968
0.401135
0.427711
0.457248
0.489336
0.52361
0.489336
0.453117
0.41899
0.387355
0.358675
0.333477
0.312331
0.295814
0.284454
0.278661
0.278661
0.284454
0.295814
0.312331
0.333477
0.358675
0.387355
0.41899
0.453117
0.489336
0.457248
0.41899
0.382682
0.348748
0.317707
0.29017
0.266833
0.248434
0.235681
0.229144
0.229144
0.235681
0.248434
0.266833
0.29017
0.317707
0.348748
0.382682
0.41899
0.457248
0.427711
0.387355
0.348748
0.312331
0.278661
0.248434
0.222492
0.201781
0.187268
0.179773
0.179773
0.187268
0.201781
0.222492
0.248434
0.278661
0.312331
0.348748
0.387355
0.427711
0.401135
0.358675
0.317707
0.278661
0.24211
0.208818
0.179773
0.156186
0.139396
0.130624
0.130624
0.139396
0.156186
0.179773
0.208818
0.24211
0.278661
0.317707
0.358675
0.401135
0.377968
0.333477
0.29017
0.248434
0.208818
0.172102
0.139396
0.112202
0.092384
0.0818405
0.0818405
0.092384
0.112202
0.139396
0.172102
0.208818
0.248434
0.29017
0.333477
0.377968
0.358675
0.312331
0.266833
0.222492
0.179773
0.139396
0.102488
0.070794
0.0468502
0.0337117
0.0337117
0.0468502
0.070794
0.102488
0.139396
0.179773
0.222492
0.266833
0.312331
0.358675
0.34371
0.295814
0.248434
0.201781
0.156186
0.112202
0.070794
0.0337117
0.00411035
-0.0130694
-0.0130694
0.00411035
0.0337117
0.070794
0.112202
0.156186
0.201781
0.248434
0.295814
0.34371
0.333477
0.284454
0.235681
0.187268
0.139396
0.092384
0.0468502
0.00411035
-0.0327396
-0.0564586
-0.0564586
-0.0327396
0.00411035
0.0468502
0.092384
0.139396
0.187268
0.235681
0.284454
0.333477
0.328278
0.278661
0.229144
0.179773
0.130624
0.0818405
0.0337117
-0.0130694
-0.0564586
-0.0887628
-0.0887628
-0.0564586
-0.0130694
0.0337117
0.0818405
0.130624
0.179773
0.229144
0.278661
0.328278
0.328278
0.278661
0.229144
0.179773
0.130624
0.0818405
0.0337117
-0.0130694
-0.0564586
-0.0887628
-0.0887628
-0.0564586
-0.0130694
0.0337117
0.0818405
0.130624
0.179773
0.229144
0.278661
0.328278
0.333477
0.284454
0.235681
0.187268
0.139396
0.092384
0.0468502
0.00411035
-0.0327396
-0.0564586
-0.0564586
-0.0327396
0.00411035
0.0468502
0.092384
0.139396
0.187268
0.235681
0.284454
0.333477
0.34371
0.295814
0.248434
0.201781
0.156186
0.112202
0.070794
0.0337117
0.00411035
-0.0130694
-0.0130694
0.00411035
0.0337117
0.070794
0.112202
0.156186
0.201781
0.248434
0.295814
0.34371
0.358675
0.312331
0.266833
0.222492
0.179773
0.139396
0.102488
0.070794
0.0468502
0.0337117
0.0337117
0.0468502
0.070794
0.102488
0.139396
0.179773
0.222492
0.266833
0.312331
0.358675
0.377968
0.333477
0.29017
0.248434
0.208818
0.172102
0.139396
0.112202
0.092384
0.0818405
0.0818405
0.092384
0.112202
0.139396
0.172102
0.208818
0.248434
0.29017
0.333477
0.377968
)
;

boundaryField
{
    movingWall
    {
        type            zeroGradient;
    }
    fixedWalls
    {
        type            zeroGradient;
    }
    frontAndBack
    {
        type            empty;
    }
}


// ************************************************************************* //
